
#(C) 2022 by FIZ Karlsruhe - Leibniz Institute for Information Infrastructure.  All rights reserved.
data_27313-ICSD
_database_code_ICSD 27313
_audit_creation_date 1986-09-24
_audit_update_record 2007-04-01
_chemical_name_common 'Hafnium oxide'
_chemical_formula_structural 'Hf O2'
_chemical_formula_sum 'Hf1 O2'
_chemical_name_structure_type Baddeleyite#ZrO2(mP12)
_exptl_crystal_density_diffrn 10.12
_citation_title

;
Crystal structure of monoclinic hafnia and comparison with monoclinic zirconia
;
loop_
_citation_id
_citation_journal_full
_citation_year
_citation_journal_volume
_citation_page_first
_citation_page_last
_citation_journal_id_ASTM
primary 'Journal of the American Ceramic Society' 1970 53 126 129 JACTAW
loop_
_citation_author_citation_id
_citation_author_name
primary 'Ruh, R.'
primary 'Corfield, P.W.R.'
_cell_length_a 5.1126(5)
_cell_length_b 5.1722(5)
_cell_length_c 5.2948(5)
_cell_angle_alpha 90.
_cell_angle_beta 99.18(8)
_cell_angle_gamma 90.
_cell_volume 138.22
_cell_formula_units_Z 4
_space_group_name_H-M_alt 'P 1 21/c 1'
_space_group_IT_number 14
loop_
_space_group_symop_id
_space_group_symop_operation_xyz
1 'x, -y+1/2, z+1/2'
2 '-x, -y, -z'
3 '-x, y+1/2, -z+1/2'
4 'x, y, z'
loop_
_atom_type_symbol
_atom_type_oxidation_number
Hf4+ 4
O2- -2
loop_
_atom_site_label
_atom_site_type_symbol
_atom_site_symmetry_multiplicity
_atom_site_Wyckoff_symbol
_atom_site_fract_x
_atom_site_fract_y
_atom_site_fract_z
_atom_site_B_iso_or_equiv
_atom_site_occupancy
Hf1 Hf4+ 4 e 0.2759(5) 0.0412(5) 0.2078(5) 0.45 1.
O1 O2- 4 e 0.073(8) 0.346(8) 0.332(8) 0.45 1.
O2 O2- 4 e 0.446(8) 0.748(8) 0.488(8) 0.45 1.
#End of TTdata_27313-ICSD