
#(C) 2022 by FIZ Karlsruhe - Leibniz Institute for Information Infrastructure.  All rights reserved.
data_165801-ICSD
_database_code_ICSD 165801
_audit_creation_date 2010-08-01
_chemical_name_common 'Calcium titanate'
_chemical_formula_structural 'Ca (Ti O3)'
_chemical_formula_sum 'Ca1 O3 Ti1'
_chemical_name_structure_type Perovskite#GdFeO3
_exptl_crystal_density_diffrn 4.04
_diffrn_ambient_temperature 293.
_citation_title

;
Solid state synthesis, structure and transport properties of compositions in
the Ca Ru1-x Tix O3-d system
;
loop_
_citation_id
_citation_journal_full
_citation_year
_citation_journal_volume
_citation_page_first
_citation_page_last
_citation_journal_id_ASTM
primary 'Journal of Alloys and Compounds' 2009 485 73 81 JALCEU
loop_
_citation_author_citation_id
_citation_author_name
primary 'Vashook, V.'
primary 'Nitsche, D.'
primary 'Vasylechko, L.'
primary 'Rebello, J.'
primary 'Zosel, J.'
primary 'Guth, U.'
_cell_length_a 5.44079(5)
_cell_length_b 7.64246(7)
_cell_length_c 5.38135(4)
_cell_angle_alpha 90.
_cell_angle_beta 90.
_cell_angle_gamma 90.
_cell_volume 223.76
_cell_formula_units_Z 4
_space_group_name_H-M_alt 'P n m a'
_space_group_IT_number 62
loop_
_space_group_symop_id
_space_group_symop_operation_xyz
1 'x+1/2, y, -z+1/2'
2 'x, -y+1/2, z'
3 '-x+1/2, y+1/2, z+1/2'
4 '-x, -y, -z'
5 '-x+1/2, -y, z+1/2'
6 '-x, y+1/2, -z'
7 'x+1/2, -y+1/2, -z+1/2'
8 'x, y, z'
loop_
_atom_type_symbol
_atom_type_oxidation_number
Ca2+ 2
Ti4+ 4
O2- -2
loop_
_atom_site_label
_atom_site_type_symbol
_atom_site_symmetry_multiplicity
_atom_site_Wyckoff_symbol
_atom_site_fract_x
_atom_site_fract_y
_atom_site_fract_z
_atom_site_B_iso_or_equiv
_atom_site_occupancy
Ca1 Ca2+ 4 c 0.9645(1) 0.25 0.0103(3) 0.91(2) 1.
Ti1 Ti4+ 4 b 0 0 0.5 0.63(2) 1.
O1 O2- 4 c 0.0199(6) 0.25 0.5699(6) 1.75(8) 1.
O2 O2- 8 d 0.2083(4) 0.4630(3) 0.2097(5) 1.04(5) 1.
#End of TTdata_165801-ICSD